 Q-Chem 5.3 (devel), Q-Chem, Inc., Pleasanton, CA (2020)
 Q-Chem 5.3.0 for Intel X86 EM64T Linux

User input:
--------------------------------------------------------------
$molecule
 0 1
N	1.1710407627	-0.9840618360	0.0000000000
C	1.2190300848	0.4059099856	0.0000000000
N	-0.0328079916	0.9869241337	0.0000000000
C	-1.2889429314	0.3481991121	0.0000000000
C	-1.1987276504	-1.1049030911	0.0000000000
C	0.0036738850	-1.7022349149	0.0000000000
H	2.0673345406	-1.4408916333	0.0000000000
O	2.2583702026	1.0223535594	0.0000000000
H	-0.0460905355	1.9980368940	0.0000000000
O	-2.3088409503	1.0011378772	0.0000000000
H	-2.1153350608	-1.6701857329	0.0000000000
H	0.1200273117	-2.7767536537	0.0000000000
$end

$rem
   METHOD            adc(2)-x
   BASIS             aug-cc-pvdz
   ee_singlets 	    [2,2]
   mem_total 490000
   mem_static 2000
   threads 24
   symmetry         false
   adc_davidson_maxiter 120
$end
--------------------------------------------------------------

             Standard Nuclear Orientation (Angstroms)
    I     Atom           X                Y                Z
 ----------------------------------------------------------------
    1      N       1.1710407627    -0.9840618360    -0.0000000000
    2      C       1.2190300848     0.4059099856     0.0000000000
    3      N      -0.0328079916     0.9869241337     0.0000000000
    4      C      -1.2889429314     0.3481991121    -0.0000000000
    5      C      -1.1987276504    -1.1049030911    -0.0000000000
    6      C       0.0036738850    -1.7022349149    -0.0000000000
    7      H       2.0673345406    -1.4408916334    -0.0000000000
    8      O       2.2583702026     1.0223535593     0.0000000000
    9      H      -0.0460905354     1.9980368940     0.0000000000
   10      O      -2.3088409503     1.0011378772    -0.0000000000
   11      H      -2.1153350608    -1.6701857329    -0.0000000000
   12      H       0.1200273116    -2.7767536537    -0.0000000000
 ----------------------------------------------------------------

   16    -412.5313208291      5.57E-09 Convergence criterion met
 Total energy in the final basis set = -412.53132083
  Excited state 1 (singlet, A")                                    [converged]
  Term symbol:  1 (1) A"                                    R^2 =  1.03730e-11
  Excitation energy:                                               3.965006 eV
  Excited state 2 (singlet, A')                                    [converged]
  Term symbol:  2 (1) A'                                    R^2 =  3.77484e-11
  Excitation energy:                                               4.609062 eV
  Excited state 3 (singlet, A')                                    [converged]
  Term symbol:  3 (1) A'                                    R^2 =  9.16700e-07
  Excitation energy:                                               5.301653 eV
  Excited state 4 (singlet, A")                                [not converged]
  Term symbol:  2 (1) A"                                    R^2 =  5.03996e-05
  Excitation energy:                                               5.355541 eV

             Orbital Energies (a.u.) and Symmetries
 --------------------------------------------------------------

 Alpha MOs, Restricted
 -- Occupied --
-20.559 -20.554 -15.650 -15.634 -11.428 -11.390 -11.346 -11.261
  1 A'    2 A'    3 A'    4 A'    5 A'    6 A'    7 A'    8 A'
 -1.444  -1.410  -1.316  -1.248  -1.091  -0.934  -0.902  -0.808
  9 A'   10 A'   11 A'   12 A'   13 A'   14 A'   15 A'   16 A'
 -0.767  -0.715  -0.681  -0.668  -0.656  -0.619  -0.602  -0.573
 17 A'   18 A'   19 A'    1 A"   20 A'   21 A'   22 A'    2 A"
 -0.526  -0.485  -0.450  -0.437  -0.368
  3 A"   23 A'   24 A'    4 A"    5 A"

 Beta MOs, Restricted
 -- Occupied --
-20.559 -20.554 -15.650 -15.634 -11.428 -11.390 -11.346 -11.261
  1 A'    2 A'    3 A'    4 A'    5 A'    6 A'    7 A'    8 A'
 -1.444  -1.410  -1.316  -1.248  -1.091  -0.934  -0.902  -0.808
  9 A'   10 A'   11 A'   12 A'   13 A'   14 A'   15 A'   16 A'
 -0.767  -0.715  -0.681  -0.668  -0.656  -0.619  -0.602  -0.573
 17 A'   18 A'   19 A'    1 A"   20 A'   21 A'   22 A'    2 A"
 -0.526  -0.485  -0.450  -0.437  -0.368
  3 A"   23 A'   24 A'    4 A"    5 A"

          Ground-State Mulliken Net Atomic Charges

     Atom                 Charge (a.u.)
  ----------------------------------------
      1 N                    -0.562989
      2 C                     1.109053
      3 N                    -0.523080
      4 C                     0.688800
      5 C                     0.864993
      6 C                     0.773748
      7 H                    -0.079040
      8 O                    -0.710899
      9 H                    -0.064327
     10 O                    -0.779655
     11 H                    -0.398011
     12 H                    -0.318593
  ----------------------------------------
  Sum of atomic charges =     0.000000

                    Cartesian Multipole Moments
 -----------------------------------------------------------------
    Charge (ESU x 10^10)
                 0.0000
    Dipole Moment (Debye)
         X       1.3069      Y      -4.7220      Z      -0.0000
       Tot       4.8996
    Quadrupole Moments (Debye-Ang)
        XX     -59.9443     XY      -2.4764     YY     -38.2168
        XZ       0.0000     YZ       0.0000     ZZ     -46.8687

 Total job time:  3148.24s(wall), 52825.03s(cpu)
        *  Thank you very much for using Q-Chem.  Have a nice day.  *
