 Q-Chem 5.3 (devel), Q-Chem, Inc., Pleasanton, CA (2020)
 Q-Chem 5.3.0 for Intel X86 EM64T Linux

User input:
--------------------------------------------------------------
$molecule
 0 1
C	2.4263501231	-0.7056037689	0.0000000000
C	2.4263501231	0.7056037689	0.0000000000
C	1.2376214393	1.4004977720	0.0000000000
C	0.0000000000	0.7148848658	0.0000000000
C	0.0000000000	-0.7148848658	0.0000000000
C	1.2376214393	-1.4004977720	0.0000000000
C	-1.2376214393	-1.4004977720	0.0000000000
C	-2.4263501231	-0.7056037689	0.0000000000
C	-2.4263501231	0.7056037689	0.0000000000
C	-1.2376214393	1.4004977720	0.0000000000
H	3.3655793057	-1.2419330757	0.0000000000
H	3.3655793057	1.2419330757	0.0000000000
H	1.2353527952	2.4836421100	0.0000000000
H	1.2353527952	-2.4836421100	0.0000000000
H	-1.2353527952	-2.4836421100	0.0000000000
H	-3.3655793057	-1.2419330757	0.0000000000
H	-3.3655793057	1.2419330757	0.0000000000
H	-1.2353527952	2.4836421100	0.0000000000
$end

$rem
   METHOD            adc(2)-x
   BASIS aug-cc-pvdz
   ee_singlets 	    [0,0,0,0,0,0,0,1]
   mem_total 490000
   mem_static 2000
   threads 24
   symmetry         false
   adc_davidson_maxiter 140
   thresh 14
$end
--------------------------------------------------------------

             Standard Nuclear Orientation (Angstroms)
    I     Atom           X                Y                Z
 ----------------------------------------------------------------
    1      C       2.4263501231    -0.7056037689     0.0000000000
    2      C       2.4263501231     0.7056037689    -0.0000000000
    3      C       1.2376214393     1.4004977720    -0.0000000000
    4      C      -0.0000000000     0.7148848658    -0.0000000000
    5      C       0.0000000000    -0.7148848658     0.0000000000
    6      C       1.2376214393    -1.4004977720     0.0000000000
    7      C      -1.2376214393    -1.4004977720     0.0000000000
    8      C      -2.4263501231    -0.7056037689     0.0000000000
    9      C      -2.4263501231     0.7056037689    -0.0000000000
   10      C      -1.2376214393     1.4004977720    -0.0000000000
   11      H       3.3655793057    -1.2419330757     0.0000000000
   12      H       3.3655793057     1.2419330757    -0.0000000000
   13      H       1.2353527952     2.4836421100    -0.0000000000
   14      H       1.2353527952    -2.4836421100     0.0000000000
   15      H      -1.2353527952    -2.4836421100     0.0000000000
   16      H      -3.3655793057    -1.2419330757     0.0000000000
   17      H      -3.3655793057     1.2419330757    -0.0000000000
   18      H      -1.2353527952     2.4836421100    -0.0000000000
 ----------------------------------------------------------------

   12    -383.3937023357      4.62E-09 Convergence criterion met
 Total energy in the final basis set = -383.39370234
  Excited state 1 (singlet, B3u)                                   [converged]
  Term symbol:  1 (1) B3u                                   R^2 =  8.18318e-07
  Excitation energy:                                               3.455886 eV

             Orbital Energies (a.u.) and Symmetries
 --------------------------------------------------------------

 Alpha MOs, Restricted
 -- Occupied --
-11.249 -11.248 -11.244 -11.244 -11.244 -11.243 -11.243 -11.243
  1 Ag    1 B2u   1 B3u   2 Ag    1 B1g   2 B2u   2 B3u   3 Ag
-11.242 -11.242  -1.181  -1.113  -1.055  -1.013  -0.984  -0.858
  2 B1g   3 B2u   4 Ag    3 B3u   4 B2u   5 Ag    3 B1g   4 B3u
 -0.839  -0.815  -0.710  -0.702  -0.680  -0.626  -0.614  -0.586
  5 B2u   6 Ag    4 B1g   5 B3u   7 Ag    6 B2u   8 Ag    6 B3u
 -0.585  -0.565  -0.534  -0.527  -0.490  -0.479  -0.449  -0.387
  5 B1g   7 B2u   1 B1u   7 B3u   6 B1g   9 Ag    1 B2g   1 B3g
 -0.320  -0.288
  2 B1u   1 Au

 Beta MOs, Restricted
 -- Occupied --
-11.249 -11.248 -11.244 -11.244 -11.244 -11.243 -11.243 -11.243
  1 Ag    1 B2u   1 B3u   2 Ag    1 B1g   2 B2u   2 B3u   3 Ag
-11.242 -11.242  -1.181  -1.113  -1.055  -1.013  -0.984  -0.858
  2 B1g   3 B2u   4 Ag    3 B3u   4 B2u   5 Ag    3 B1g   4 B3u
 -0.839  -0.815  -0.710  -0.702  -0.680  -0.626  -0.614  -0.586
  5 B2u   6 Ag    4 B1g   5 B3u   7 Ag    6 B2u   8 Ag    6 B3u
 -0.585  -0.565  -0.534  -0.527  -0.490  -0.479  -0.449  -0.387
  5 B1g   7 B2u   1 B1u   7 B3u   6 B1g   9 Ag    1 B2g   1 B3g
 -0.320  -0.288
  2 B1u   1 Au

          Ground-State Mulliken Net Atomic Charges

     Atom                 Charge (a.u.)
  ----------------------------------------
      1 C                     0.365981
      2 C                     0.365981
      3 C                     0.461624
      4 C                     0.459635
      5 C                     0.459635
      6 C                     0.461624
      7 C                     0.461624
      8 C                     0.365981
      9 C                     0.365981
     10 C                     0.461624
     11 H                    -0.463073
     12 H                    -0.463073
     13 H                    -0.594350
     14 H                    -0.594350
     15 H                    -0.594350
     16 H                    -0.463073
     17 H                    -0.463073
     18 H                    -0.594350
  ----------------------------------------
  Sum of atomic charges =     0.000000

                    Cartesian Multipole Moments
 -----------------------------------------------------------------
    Charge (ESU x 10^10)
                 0.0000
    Dipole Moment (Debye)
         X       0.0000      Y       0.0000      Z      -0.0000
       Tot       0.0000
    Quadrupole Moments (Debye-Ang)
        XX     -51.7939     XY       0.0000     YY     -51.9034
        XZ       0.0000     YZ       0.0000     ZZ     -66.2195

 Total job time:  798.65s(wall), 7668.55s(cpu)
        *  Thank you very much for using Q-Chem.  Have a nice day.  *
