 Q-Chem 5.3 (devel), Q-Chem, Inc., Pleasanton, CA (2020)
 Q-Chem 5.3.0 for Intel X86 EM64T Linux

User input:
--------------------------------------------------------------
$molecule
 0 1
C	-1.1927800000	0.0000000000	0.6273357143
N	-1.1951400000	0.0000000000	-0.7226642857
C	0.0000000000	0.0000000000	-1.3016542857
N	1.1951400000	0.0000000000	-0.7226642857
C	1.1927800000	0.0000000000	0.6273357143
C	0.0000000000	0.0000000000	1.3468657143
H	2.1454800000	0.0000000000	1.1338957143
H	0.0000000000	0.0000000000	2.4338657143
H	-2.1454800000	0.0000000000	1.1338957143
H	0.0000000000	0.0000000000	-2.3836542857
$end

$rem
   METHOD            ccsd
   BASIS             gen
   PURECART 1
   CC_REF_PROP       true
   CC_EOM_PROP       true
   CC_POL            4
   EOM_POL           4 ! EV
   CC_FULLRESPONSE   false ! Kaushik
   EE_SINGLETS       [0,0,1,1]
   !sym_ignore        true
   symmetry         false
   !cc_symmetry false
   mem_total 100000
   mem_static 2000
   threads 12
$end

$basis
H     0
S   4   1.00
     33.685014                .006068
      5.094788                .045316
      1.158786                .202846
      0.325840                .503709
S   1   1.00
      0.102741               1.00000
S   1   1.00
      0.032400               1.00000
P   2   1.00
      1.1588                  .188440
      0.3258                  .882420
P   2   1.00
      0.1027                  .117800
      0.0324                  .004200
****
C     0
S   5   1.00
   5240.6353                  .000937
    782.20480                 .007228
    178.35083                 .036344
     50.815942                .130600
     16.823562                .318931
S   2   1.00
      6.175776                .438742
      2.418049                .214974
S   1   1.00
      0.511900               1.
S   1   1.00
      0.156590               1.
S   1   1.00
      0.047900               1.
P   4   1.00
     18.841800                .013887
      4.159240                .086279
      1.206710                .288744
      0.385540                .499411
P   1   1.00
      0.121940               1.
P   1   1.00
      0.038568               1.
D   2   1.00
      1.206710                .262852
      0.385540                .804300
D   2   1.00
      0.121940                .653500
      0.038658                .863600
****
N     0
S   5   1.00
   8104.0716                  .000802
   1216.0215                  .006174
    277.23428                 .031233
     76.904023                .115198
     25.874419                .296951
S   2   1.00
      9.346767                .447349
      3.579794                .245003
S   1   1.00
      0.739610               1.
S   1   1.00
      0.222617               1.
S   1   1.00
      0.067006               1.
P   4   1.00
     26.868987                .014478
      5.991227                .091156
      1.750842                .297420
      0.560511                .493796
P   1   1.00
      0.175948               1.
P   1   1.00
      0.055231               1.
D   2   1.00
      1.750842                .224774
      0.560511                .659562
D   2   1.00
      0.175948                .871355
      0.055231                .704217
****
O     0
S   5   1.00
  10662.285                   .000799
   1599.7097                  .006153
    364.72526                 .031157
    103.65179                 .115596
     33.905805                .301552
S   2   1.00
     12.287469                .444870
      4.756805                .243172
S   1   1.00
      1.004271               1.
S   1   1.00
      0.300686               1.
S   1   1.00
      0.09003                1.
P   4   1.00
     34.856463                .015648
      7.843131                .098197
      2.306249                .307768
      0.723164                .492470
P   1   1.00
      0.214882               1.
P   1   1.00
      0.06385                1.
D   2   1.00
      2.3062                  .20270
      0.7232                  .5791
D   2   1.00
      0.2149                  .78545
      0.0639                  .53387
****
$end
--------------------------------------------------------------

             Standard Nuclear Orientation (Angstroms)
    I     Atom           X                Y                Z
 ----------------------------------------------------------------
    1      C      -1.1927800000    -0.0000000000     0.6273357143
    2      N      -1.1951400000    -0.0000000000    -0.7226642857
    3      C       0.0000000000    -0.0000000000    -1.3016542857
    4      N       1.1951400000    -0.0000000000    -0.7226642857
    5      C       1.1927800000     0.0000000000     0.6273357143
    6      C      -0.0000000000     0.0000000000     1.3468657143
    7      H       2.1454800000     0.0000000000     1.1338957143
    8      H      -0.0000000000     0.0000000000     2.4338657143
    9      H      -2.1454800000    -0.0000000000     1.1338957143
   10      H       0.0000000000    -0.0000000000    -2.3836542857
 ----------------------------------------------------------------

   17    -262.7494346974      6.18e-09  Convergence criterion met
 Total energy in the final basis set =     -262.7494346974
 CCSD total energy          = -263.63800074
 EOMEE transition 1/B1
 Total energy = -263.43696339 a.u.  Excitation energy = 5.4705 eV.
 Excited state properties for  EOMEE-CCSD transition 1/B1
 EOMEE transition 1/B2
 Total energy = -263.46938853 a.u.  Excitation energy = 4.5882 eV.
 Excited state properties for  EOMEE-CCSD transition 1/B2

             Orbital Energies (a.u.) and Symmetries
 --------------------------------------------------------------

 Alpha MOs, Restricted
 -- Occupied --
-15.577 -15.577 -11.318 -11.311 -11.311 -11.261  -1.314  -1.196
  1 B1    1 A1    2 A1    3 A1    2 B1    4 A1    5 A1    3 B1
 -1.078  -0.902  -0.890  -0.742  -0.704  -0.650  -0.600  -0.592
  6 A1    4 B1    7 A1    8 A1    5 B1    9 A1    6 B1   10 A1
 -0.577  -0.472  -0.421  -0.420  -0.380
  1 B2   11 A1    1 A2    7 B1    2 B2

 Beta MOs, Restricted
 -- Occupied --
-15.577 -15.577 -11.318 -11.311 -11.311 -11.261  -1.314  -1.196
  1 B1    1 A1    2 A1    3 A1    2 B1    4 A1    5 A1    3 B1
 -1.078  -0.902  -0.890  -0.742  -0.704  -0.650  -0.600  -0.592
  6 A1    4 B1    7 A1    8 A1    5 B1    9 A1    6 B1   10 A1
 -0.577  -0.472  -0.421  -0.420  -0.380
  1 B2   11 A1    1 A2    7 B1    2 B2

          Ground-State Mulliken Net Atomic Charges

     Atom                 Charge (a.u.)
  ----------------------------------------
      1 C                     1.106290
      2 N                    -0.751604
      3 C                     0.681553
      4 N                    -0.751604
      5 C                     1.106290
      6 C                     1.358372
      7 H                    -0.521537
      8 H                    -1.198851
      9 H                    -0.521537
     10 H                    -0.507371
  ----------------------------------------
  Sum of atomic charges =     0.000000

                    Cartesian Multipole Moments
 -----------------------------------------------------------------
    Charge (ESU x 10^10)
                 0.0000
    Dipole Moment (Debye)
         X      -0.0000      Y      -0.0000      Z       2.4523
       Tot       2.4523
    Quadrupole Moments (Debye-Ang)
        XX     -37.9567     XY       0.0000     YY     -36.6615
        XZ      -0.0000     YZ       0.0000     ZZ     -31.6758

 Total job time:  848.74s(wall), 7119.68s(cpu)
        *  Thank you very much for using Q-Chem.  Have a nice day.  *
