 Q-Chem 5.3 (devel), Q-Chem, Inc., Pleasanton, CA (2020)
 Q-Chem 5.3.0 for Intel X86 EM64T Linux

User input:
--------------------------------------------------------------
$molecule
 0 1
C	0.0000000000	0.0000000000	0.7067572030
C	1.2195927633	0.0000000000	0.0169722341
C	1.2182354930	0.0000000000	-1.3785576094
C	0.0000000000	0.0000000000	-2.1022984644
C	-1.2182354930	0.0000000000	-1.3785576094
C	-1.2195927633	0.0000000000	0.0169722341
H	2.1553754221	0.0000000000	0.5783441717
H	2.1689860113	0.0000000000	-1.9216160742
H	-2.1689860113	0.0000000000	-1.9216160742
H	-2.1553754221	0.0000000000	0.5783441717
N	0.0000000000	0.0000000000	-3.4751838553
N	0.0000000000	0.0000000000	2.1763098305
O	-1.0841264669	0.0000000000	2.7410708406
O	1.0841264669	0.0000000000	2.7410708406
H	-0.8656098383	0.0000000000	-3.9919253642
H	0.8656098383	0.0000000000	-3.9919253642
$end

$rem
   METHOD            adc(3)
   BASIS             aug-cc-pvdz
   ee_singlets 	    [2,0,0,0]
   mem_total 490000
   mem_static 2000
   threads 24
   symmetry         false
   adc_davidson_maxiter 140
$end
--------------------------------------------------------------

             Standard Nuclear Orientation (Angstroms)
    I     Atom           X                Y                Z
 ----------------------------------------------------------------
    1      C       0.0000000000     0.0000000000     0.7153356937
    2      C       1.2195927633     0.0000000000     0.0255507248
    3      C       1.2182354930     0.0000000000    -1.3699791187
    4      C       0.0000000000     0.0000000000    -2.0937199737
    5      C      -1.2182354930     0.0000000000    -1.3699791187
    6      C      -1.2195927633     0.0000000000     0.0255507248
    7      H       2.1553754221     0.0000000000     0.5869226624
    8      H       2.1689860113     0.0000000000    -1.9130375835
    9      H      -2.1689860113     0.0000000000    -1.9130375835
   10      H      -2.1553754221     0.0000000000     0.5869226624
   11      N       0.0000000000     0.0000000000    -3.4666053646
   12      N       0.0000000000     0.0000000000     2.1848883212
   13      O      -1.0841264669     0.0000000000     2.7496493313
   14      O       1.0841264669     0.0000000000     2.7496493313
   15      H      -0.8656098383     0.0000000000    -3.9833468735
   16      H       0.8656098383     0.0000000000    -3.9833468735
 ----------------------------------------------------------------

   19    -489.2777852011      9.78E-09 Convergence criterion met
 Total energy in the final basis set = -489.27778520
  Excited state 1 (singlet, A1)                                    [converged]
  Term symbol:  2 (1) A1                                    R^2 =  4.06363e-10
  Excitation energy:                                               4.227620 eV
  Excited state 2 (singlet, A1)                                    [converged]
  Term symbol:  3 (1) A1                                    R^2 =  9.32506e-07
  Excitation energy:                                               6.035303 eV

             Orbital Energies (a.u.) and Symmetries
 --------------------------------------------------------------

 Alpha MOs, Restricted
 -- Occupied --
-20.598 -20.598 -15.850 -15.608 -11.331 -11.295 -11.283 -11.283
  1 B1    1 A1    2 A1    3 A1    4 A1    5 A1    2 B1    6 A1
-11.261 -11.261  -1.600  -1.394  -1.262  -1.174  -1.064  -1.045
  3 B1    7 A1    8 A1    4 B1    9 A1   10 A1   11 A1    5 B1
 -0.940  -0.868  -0.824  -0.771  -0.737  -0.731  -0.710  -0.709
 12 A1    6 B1   13 A1   14 A1    7 B1   15 A1    8 B1    1 B2
 -0.642  -0.629  -0.613  -0.588  -0.562  -0.521  -0.484  -0.482
 16 A1    9 B1   10 B1   17 A1    2 B2   11 B1   18 A1   12 B1
 -0.477  -0.446  -0.367  -0.322
  3 B2    1 A2    2 A2    4 B2

 Beta MOs, Restricted
 -- Occupied --
-20.598 -20.598 -15.850 -15.608 -11.331 -11.295 -11.283 -11.283
  1 B1    1 A1    2 A1    3 A1    4 A1    5 A1    2 B1    6 A1
-11.261 -11.261  -1.600  -1.394  -1.262  -1.174  -1.064  -1.045
  3 B1    7 A1    8 A1    4 B1    9 A1   10 A1   11 A1    5 B1
 -0.940  -0.868  -0.824  -0.771  -0.737  -0.731  -0.710  -0.709
 12 A1    6 B1   13 A1   14 A1    7 B1   15 A1    8 B1    1 B2
 -0.642  -0.629  -0.613  -0.588  -0.562  -0.521  -0.484  -0.482
 16 A1    9 B1   10 B1   17 A1    2 B2   11 B1   18 A1   12 B1
 -0.477  -0.446  -0.367  -0.322
  3 B2    1 A2    2 A2    4 B2

          Ground-State Mulliken Net Atomic Charges

     Atom                 Charge (a.u.)
  ----------------------------------------
      1 C                     1.389359
      2 C                     0.272575
      3 C                     0.733929
      4 C                     0.248118
      5 C                     0.733916
      6 C                     0.272576
      7 H                    -0.453477
      8 H                    -0.567421
      9 H                    -0.567421
     10 H                    -0.453478
     11 N                    -0.337685
     12 N                     0.467782
     13 O                    -0.821842
     14 O                    -0.821843
     15 H                    -0.047544
     16 H                    -0.047544
  ----------------------------------------
  Sum of atomic charges =     0.000000

                    Cartesian Multipole Moments
 -----------------------------------------------------------------
    Charge (ESU x 10^10)
                -0.0000
    Dipole Moment (Debye)
         X      -0.0000      Y      -0.0000      Z      -7.5052
       Tot       7.5052
    Quadrupole Moments (Debye-Ang)
        XX     -52.6890     XY      -0.0000     YY     -61.8856
        XZ      -0.0000     YZ      -0.0000     ZZ     -58.1918

 Total job time:  2296.71s(wall), 32967.13s(cpu)
        *  Thank you very much for using Q-Chem.  Have a nice day.  *
