 Q-Chem 5.3 (devel), Q-Chem, Inc., Pleasanton, CA (2020)
 Q-Chem 5.3.0 for Intel X86 EM64T Linux

User input:
--------------------------------------------------------------
$molecule
 0 1
C	0.0000000000	0.0000000000	0.7067572030
C	1.2195927633	0.0000000000	0.0169722341
C	1.2182354930	0.0000000000	-1.3785576094
C	0.0000000000	0.0000000000	-2.1022984644
C	-1.2182354930	0.0000000000	-1.3785576094
C	-1.2195927633	0.0000000000	0.0169722341
H	2.1553754221	0.0000000000	0.5783441717
H	2.1689860113	0.0000000000	-1.9216160742
H	-2.1689860113	0.0000000000	-1.9216160742
H	-2.1553754221	0.0000000000	0.5783441717
N	0.0000000000	0.0000000000	-3.4751838553
N	0.0000000000	0.0000000000	2.1763098305
O	-1.0841264669	0.0000000000	2.7410708406
O	1.0841264669	0.0000000000	2.7410708406
H	-0.8656098383	0.0000000000	-3.9919253642
H	0.8656098383	0.0000000000	-3.9919253642
$end

$rem
   METHOD            ccsd
   BASIS             aug-cc-pvdz
   CC_REF_PROP       true
   CC_EOM_PROP       true
   CC_POL            4 !  EV
   CC_FULLRESPONSE   false ! Kaushik
   ee_singlets 	    [2,0,0,0]
   EOM_POL           4 ! EV
   mem_total 350000
   threads 12
   symmetry         false
$end
--------------------------------------------------------------

             Standard Nuclear Orientation (Angstroms)
    I     Atom           X                Y                Z
 ----------------------------------------------------------------
    1      C       0.0000000000     0.0000000000     0.7153356937
    2      C       1.2195927633     0.0000000000     0.0255507248
    3      C       1.2182354930     0.0000000000    -1.3699791187
    4      C       0.0000000000     0.0000000000    -2.0937199737
    5      C      -1.2182354930     0.0000000000    -1.3699791187
    6      C      -1.2195927633     0.0000000000     0.0255507248
    7      H       2.1553754221     0.0000000000     0.5869226624
    8      H       2.1689860113     0.0000000000    -1.9130375835
    9      H      -2.1689860113     0.0000000000    -1.9130375835
   10      H      -2.1553754221     0.0000000000     0.5869226624
   11      N       0.0000000000     0.0000000000    -3.4666053646
   12      N       0.0000000000     0.0000000000     2.1848883212
   13      O      -1.0841264669     0.0000000000     2.7496493313
   14      O       1.0841264669     0.0000000000     2.7496493313
   15      H      -0.8656098383     0.0000000000    -3.9833468735
   16      H       0.8656098383     0.0000000000    -3.9833468735
 ----------------------------------------------------------------

   15    -489.2777852037      7.55e-09  Convergence criterion met
 Total energy in the final basis set =     -489.2777852037
 CCSD total energy          = -490.86467567
 EOMEE transition 1/A1
 Total energy = -490.69492914 a.u.  Excitation energy = 4.6190 eV.
 EOMEE transition 2/A1
 Total energy = -490.63246696 a.u.  Excitation energy = 6.3187 eV.
 Excited state properties for  EOMEE-CCSD transition 1/A1
 Excited state properties for  EOMEE-CCSD transition 2/A1

             Orbital Energies (a.u.) and Symmetries
 --------------------------------------------------------------

 Alpha MOs, Restricted
 -- Occupied --
-20.598 -20.598 -15.850 -15.608 -11.331 -11.295 -11.283 -11.283
  1 B1    1 A1    2 A1    3 A1    4 A1    5 A1    2 B1    6 A1
-11.261 -11.261  -1.600  -1.394  -1.262  -1.174  -1.064  -1.045
  3 B1    7 A1    8 A1    4 B1    9 A1   10 A1   11 A1    5 B1
 -0.940  -0.868  -0.824  -0.771  -0.737  -0.731  -0.710  -0.709
 12 A1    6 B1   13 A1   14 A1    7 B1   15 A1    8 B1    1 B2
 -0.642  -0.629  -0.613  -0.588  -0.562  -0.521  -0.484  -0.482
 16 A1    9 B1   10 B1   17 A1    2 B2   11 B1   18 A1   12 B1
 -0.477  -0.446  -0.367  -0.322
  3 B2    1 A2    2 A2    4 B2

 Beta MOs, Restricted
 -- Occupied --
-20.598 -20.598 -15.850 -15.608 -11.331 -11.295 -11.283 -11.283
  1 B1    1 A1    2 A1    3 A1    4 A1    5 A1    2 B1    6 A1
-11.261 -11.261  -1.600  -1.394  -1.262  -1.174  -1.064  -1.045
  3 B1    7 A1    8 A1    4 B1    9 A1   10 A1   11 A1    5 B1
 -0.940  -0.868  -0.824  -0.771  -0.737  -0.731  -0.710  -0.709
 12 A1    6 B1   13 A1   14 A1    7 B1   15 A1    8 B1    1 B2
 -0.642  -0.629  -0.613  -0.588  -0.562  -0.521  -0.484  -0.482
 16 A1    9 B1   10 B1   17 A1    2 B2   11 B1   18 A1   12 B1
 -0.477  -0.446  -0.367  -0.322
  3 B2    1 A2    2 A2    4 B2

          Ground-State Mulliken Net Atomic Charges

     Atom                 Charge (a.u.)
  ----------------------------------------
      1 C                     1.010124
      2 C                     0.392066
      3 C                     0.701835
      4 C                     0.212228
      5 C                     0.701835
      6 C                     0.392066
      7 H                    -0.522764
      8 H                    -0.616265
      9 H                    -0.616265
     10 H                    -0.522764
     11 N                    -0.087347
     12 N                     0.462123
     13 O                    -0.679366
     14 O                    -0.679366
     15 H                    -0.074070
     16 H                    -0.074070
  ----------------------------------------
  Sum of atomic charges =     0.000000

                    Cartesian Multipole Moments
 -----------------------------------------------------------------
    Charge (ESU x 10^10)
                 0.0000
    Dipole Moment (Debye)
         X      -0.0000      Y       0.0000      Z      -6.7814
       Tot       6.7814
    Quadrupole Moments (Debye-Ang)
        XX     -53.7995     XY      -0.0000     YY     -61.8887
        XZ       0.0000     YZ      -0.0000     ZZ     -57.3542

 Total job time:  10527.54s(wall), 109582.57s(cpu)
        *  Thank you very much for using Q-Chem.  Have a nice day.  *
