 Q-Chem 5.3 (devel), Q-Chem, Inc., Pleasanton, CA (2020)
 Q-Chem 5.3.0 for Intel X86 EM64T Linux

User input:
--------------------------------------------------------------
$molecule
 0 1
N	-0.6583000000	-1.1581100000	0.0000000000
C	-1.3082000000	0.0000000000	0.0000000000
N	-0.6583000000	1.1581100000	0.0000000000
N	0.6583000000	1.1581100000	0.0000000000
C	1.3082000000	0.0000000000	0.0000000000
N	0.6583000000	-1.1581100000	0.0000000000
H	2.3829000000	0.0000000000	0.0000000000
H	-2.3829000000	0.0000000000	0.0000000000
$end

$rem
   METHOD            adc(3)
   BASIS             gen
   PURECART 1
   EE_SINGLETS       [0,0,0,0,0,1,1,1]
   symmetry         false
   mem_total 100000
   mem_static 2000
   threads 12
$end

$basis
H     0
S   4   1.00
     33.685014                .006068
      5.094788                .045316
      1.158786                .202846
      0.325840                .503709
S   1   1.00
      0.102741               1.00000
S   1   1.00
      0.032400               1.00000
P   2   1.00
      1.1588                  .188440
      0.3258                  .882420
P   2   1.00
      0.1027                  .117800
      0.0324                  .004200
****
C     0
S   5   1.00
   5240.6353                  .000937
    782.20480                 .007228
    178.35083                 .036344
     50.815942                .130600
     16.823562                .318931
S   2   1.00
      6.175776                .438742
      2.418049                .214974
S   1   1.00
      0.511900               1.
S   1   1.00
      0.156590               1.
S   1   1.00
      0.047900               1.
P   4   1.00
     18.841800                .013887
      4.159240                .086279
      1.206710                .288744
      0.385540                .499411
P   1   1.00
      0.121940               1.
P   1   1.00
      0.038568               1.
D   2   1.00
      1.206710                .262852
      0.385540                .804300
D   2   1.00
      0.121940                .653500
      0.038658                .863600
****
N     0
S   5   1.00
   8104.0716                  .000802
   1216.0215                  .006174
    277.23428                 .031233
     76.904023                .115198
     25.874419                .296951
S   2   1.00
      9.346767                .447349
      3.579794                .245003
S   1   1.00
      0.739610               1.
S   1   1.00
      0.222617               1.
S   1   1.00
      0.067006               1.
P   4   1.00
     26.868987                .014478
      5.991227                .091156
      1.750842                .297420
      0.560511                .493796
P   1   1.00
      0.175948               1.
P   1   1.00
      0.055231               1.
D   2   1.00
      1.750842                .224774
      0.560511                .659562
D   2   1.00
      0.175948                .871355
      0.055231                .704217
****
O     0
S   5   1.00
  10662.285                   .000799
   1599.7097                  .006153
    364.72526                 .031157
    103.65179                 .115596
     33.905805                .301552
S   2   1.00
     12.287469                .444870
      4.756805                .243172
S   1   1.00
      1.004271               1.
S   1   1.00
      0.300686               1.
S   1   1.00
      0.09003                1.
P   4   1.00
     34.856463                .015648
      7.843131                .098197
      2.306249                .307768
      0.723164                .492470
P   1   1.00
      0.214882               1.
P   1   1.00
      0.06385                1.
D   2   1.00
      2.3062                  .20270
      0.7232                  .5791
D   2   1.00
      0.2149                  .78545
      0.0639                  .53387
****
$end
--------------------------------------------------------------

             Standard Nuclear Orientation (Angstroms)
    I     Atom           X                Y                Z
 ----------------------------------------------------------------
    1      N      -0.6583000000    -1.1581100000    -0.0000000000
    2      C      -1.3082000000     0.0000000000     0.0000000000
    3      N      -0.6583000000     1.1581100000     0.0000000000
    4      N       0.6583000000     1.1581100000     0.0000000000
    5      C       1.3082000000    -0.0000000000    -0.0000000000
    6      N       0.6583000000    -1.1581100000    -0.0000000000
    7      H       2.3829000000    -0.0000000000    -0.0000000000
    8      H      -2.3829000000     0.0000000000     0.0000000000
 ----------------------------------------------------------------

   14    -294.6606924171      2.60E-09 Convergence criterion met
 Total energy in the final basis set = -294.66069242
  Excited state 1 (singlet, B1u)                                   [converged]
  Term symbol:  1 (1) B1u                                   R^2 =  7.02641e-07
  Excitation energy:                                               2.177949 eV
  Excited state 2 (singlet, B2u)                                   [converged]
  Term symbol:  1 (1) B2u                                   R^2 =  9.17727e-07
  Excitation energy:                                               5.280368 eV
  Excited state 3 (singlet, B3u)                               [not converged]
  Term symbol:  1 (1) B3u                                   R^2 =  5.67990e-04
  Excitation energy:                                               7.154535 eV

             Orbital Energies (a.u.) and Symmetries
 --------------------------------------------------------------

 Alpha MOs, Restricted
 -- Occupied --
-15.657 -15.657 -15.656 -15.656 -11.346 -11.346  -1.445  -1.331
  1 B2u   1 Ag    1 B1g   1 B3u   2 B3u   2 Ag    3 Ag    2 B2u
 -1.203  -1.024  -0.967  -0.797  -0.757  -0.716  -0.649  -0.557
  3 B3u   2 B1g   4 Ag    3 B2u   5 Ag    4 B3u   1 B1u   4 B2u
 -0.539  -0.527  -0.493  -0.440  -0.405
  6 Ag    5 B3u   1 B3g   1 B2g   3 B1g

 Beta MOs, Restricted
 -- Occupied --
-15.657 -15.657 -15.656 -15.656 -11.346 -11.346  -1.445  -1.331
  1 B2u   1 Ag    1 B1g   1 B3u   2 B3u   2 Ag    3 Ag    2 B2u
 -1.203  -1.024  -0.967  -0.797  -0.757  -0.716  -0.649  -0.557
  3 B3u   2 B1g   4 Ag    3 B2u   5 Ag    4 B3u   1 B1u   4 B2u
 -0.539  -0.527  -0.493  -0.440  -0.405
  6 Ag    5 B3u   1 B3g   1 B2g   3 B1g

          Ground-State Mulliken Net Atomic Charges

     Atom                 Charge (a.u.)
  ----------------------------------------
      1 N                    -0.675096
      2 C                     1.536302
      3 N                    -0.675096
      4 N                    -0.675096
      5 C                     1.536302
      6 N                    -0.675096
      7 H                    -0.186110
      8 H                    -0.186110
  ----------------------------------------
  Sum of atomic charges =     0.000000

                    Cartesian Multipole Moments
 -----------------------------------------------------------------
    Charge (ESU x 10^10)
                -0.0000
    Dipole Moment (Debye)
         X       0.0000      Y      -0.0000      Z      -0.0000
       Tot       0.0000
    Quadrupole Moments (Debye-Ang)
        XX     -26.6065     XY      -0.0000     YY     -44.5079
        XZ      -0.0000     YZ       0.0000     ZZ     -33.5596

 Total job time:  374.48s(wall), 2414.55s(cpu)
        *  Thank you very much for using Q-Chem.  Have a nice day.  *
