 Q-Chem 5.3 (devel), Q-Chem, Inc., Pleasanton, CA (2020)
 Q-Chem 5.3.0 for Intel X86 EM64T Linux

User input:
--------------------------------------------------------------
$molecule
 0 1
C	0.0000000000	0.0000000000	0.5325493576
H	0.9343700000	0.0000000000	1.1138904967
H	-0.9343700000	0.0000000000	1.1138904967
O	0.0000000000	0.0000000000	-0.6778846424
$end

$rem
   METHOD            adc(3)
   BASIS aug-cc-pvdz
   EE_SINGLETS       [0,0,1,0]
   symmetry         false
   mem_total 100000
   mem_static 2000
   threads 12
$end

--------------------------------------------------------------

             Standard Nuclear Orientation (Angstroms)
    I     Atom           X                Y                Z
 ----------------------------------------------------------------
    1      C       0.0000000000     0.0000000000     0.5325493576
    2      H       0.9343700000     0.0000000000     1.1138904967
    3      H      -0.9343700000     0.0000000000     1.1138904967
    4      O       0.0000000000     0.0000000000    -0.6778846424
 ----------------------------------------------------------------

   12    -113.8848525566      4.30E-09 Convergence criterion met
 Total energy in the final basis set = -113.88485256
  Excited state 1 (singlet, B1)                                    [converged]
  Term symbol:  1 (1) B1                                    R^2 =  9.97343e-07
  Excitation energy:                                               7.565432 eV

             Orbital Energies (a.u.) and Symmetries
 --------------------------------------------------------------

 Alpha MOs, Restricted
 -- Occupied --
-20.589 -11.353  -1.409  -0.874  -0.694  -0.653  -0.536  -0.443
  1 A1    2 A1    3 A1    4 A1    1 B1    5 A1    1 B2    2 B1

 Beta MOs, Restricted
 -- Occupied --
-20.589 -11.353  -1.409  -0.874  -0.694  -0.653  -0.536  -0.443
  1 A1    2 A1    3 A1    4 A1    1 B1    5 A1    1 B2    2 B1

          Ground-State Mulliken Net Atomic Charges

     Atom                 Charge (a.u.)
  ----------------------------------------
      1 C                     0.737376
      2 H                    -0.098052
      3 H                    -0.098052
      4 O                    -0.541272
  ----------------------------------------
  Sum of atomic charges =     0.000000

                    Cartesian Multipole Moments
 -----------------------------------------------------------------
    Charge (ESU x 10^10)
                -0.0000
    Dipole Moment (Debye)
         X       0.0000      Y      -0.0000      Z       2.8888
       Tot       2.8888
    Quadrupole Moments (Debye-Ang)
        XX     -11.4644     XY       0.0000     YY     -11.7741
        XZ      -0.0000     YZ       0.0000     ZZ     -12.1639

 Total job time:  60.38s(wall), 128.16s(cpu)
        *  Thank you very much for using Q-Chem.  Have a nice day.  *
