 Q-Chem 5.3 (devel), Q-Chem, Inc., Pleasanton, CA (2020)
 Q-Chem 5.3.0 for Intel X86 EM64T Linux

User input:
--------------------------------------------------------------
$molecule
 0 1
C	0.0000000000	0.0000000000	0.5325493576
H	0.9343700000	0.0000000000	1.1138904967
H	-0.9343700000	0.0000000000	1.1138904967
O	0.0000000000	0.0000000000	-0.6778846424
$end

$rem
   METHOD            ccsd
   BASIS aug-cc-pvdz
   CC_REF_PROP       true
   CC_EOM_PROP       true
   CC_POL            4 ! EV
   EOM_POL           4 ! EV
   CC_FULLRESPONSE   false ! Kaushik
   EE_SINGLETS       [0,0,1,0]
   !sym_ignore        true
   symmetry         false
   !cc_symmetry false
   mem_total 50000
   mem_static 2000
   threads 12
$end

--------------------------------------------------------------

             Standard Nuclear Orientation (Angstroms)
    I     Atom           X                Y                Z
 ----------------------------------------------------------------
    1      C       0.0000000000     0.0000000000     0.5325493576
    2      H       0.9343700000     0.0000000000     1.1138904967
    3      H      -0.9343700000     0.0000000000     1.1138904967
    4      O       0.0000000000     0.0000000000    -0.6778846424
 ----------------------------------------------------------------

   12    -113.8848525566      4.30e-09  Convergence criterion met
 Total energy in the final basis set =     -113.8848525566
 CCSD total energy          = -114.23264603
 EOMEE transition 1/B1
 Total energy = -113.97373121 a.u.  Excitation energy = 7.0454 eV.
 Excited state properties for  EOMEE-CCSD transition 1/B1

             Orbital Energies (a.u.) and Symmetries
 --------------------------------------------------------------

 Alpha MOs, Restricted
 -- Occupied --
-20.589 -11.353  -1.409  -0.874  -0.694  -0.653  -0.536  -0.443
  1 A1    2 A1    3 A1    4 A1    1 B1    5 A1    1 B2    2 B1

 Beta MOs, Restricted
 -- Occupied --
-20.589 -11.353  -1.409  -0.874  -0.694  -0.653  -0.536  -0.443
  1 A1    2 A1    3 A1    4 A1    1 B1    5 A1    1 B2    2 B1

          Ground-State Mulliken Net Atomic Charges

     Atom                 Charge (a.u.)
  ----------------------------------------
      1 C                     0.659228
      2 H                    -0.133652
      3 H                    -0.133652
      4 O                    -0.391924
  ----------------------------------------
  Sum of atomic charges =     0.000000

                    Cartesian Multipole Moments
 -----------------------------------------------------------------
    Charge (ESU x 10^10)
                 0.0000
    Dipole Moment (Debye)
         X      -0.0000      Y      -0.0000      Z       2.3773
       Tot       2.3773
    Quadrupole Moments (Debye-Ang)
        XX     -11.8357     XY       0.0000     YY     -11.8304
        XZ      -0.0000     YZ      -0.0000     ZZ     -12.4751

 Total job time:  88.94s(wall), 540.45s(cpu)
        *  Thank you very much for using Q-Chem.  Have a nice day.  *
